HEADER
"PSFversion" "1.00"
"V0n" "NCSU_Analog_Parts_vdc_spectre"
"V1n" "NCSU_Analog_Parts_vpulse_spectre"
"N0n" "NCSU_Analog_Parts_nmos4_spectre"
"P0n" "NCSU_Analog_Parts_pmos4_spectre"
"C0n" "NCSU_Analog_Parts_cap_spectre"
