HEADER
"PSFversion" "1.00"
"design" "(\"lib6414\" \"inv\" \"schematic\" \"\")"
"simulator" "spectre"
"temperature" "27"
"host" ""
"date" "Mar 12 14:00:56 2018"
"title" ""
"analysisList" "()"
END
