HEADER
"PSFversion" "1.00"
"simulator" "spectre"
"version" "10.1.1.181.isr12"
"date" "2:00:59 PM, Mon Mar 12, 2018"
"design" "// Generated for: spectre"
"analysis type" "info.subckts"
"analysis name" "subckts"
"analysis description" "Circuit Information"
"xVecSorted" "unsorted"
"tolerance.relative" 0.00100000
END
