HEADER
"PSFversion" "1.00"
"Time Stamp" "Mar 12 14:00:56 2018"
TYPE
"variable" STRUCT(
"value" FLOAT DOUBLE
) PROP( "key" "element" )
VALUE
"temp" "variable" ( 27 ) PROP( )
END
